7
	Energy:      -6.8278051
O         -4.17097        0.86950       -0.04594
H         -3.21464        0.63553       -0.05289
H         -4.49919        0.35006       -0.79432
N         -1.48864        0.09314       -0.21995
H         -0.93904        0.94461       -0.36667
H         -1.22729       -0.22238        0.71866
H         -1.07060       -0.59609       -0.84949
